ITEM: TIMESTEP
2100
ITEM: NUMBER OF ATOMS
500
ITEM: BOX BOUNDS pp pp pp
0.0000000000000000e+00 3.6840314986403897e+01
0.0000000000000000e+00 3.6840314986403897e+01
0.0000000000000000e+00 3.6840314986403897e+01
ITEM: ATOMS id x y z vx vy vz
12 0.738685 0.599435 0.0699022 -0.839445 -1.05227 -0.854865
214 0.124985 2.24217 0.504656 -0.956872 0.204897 -0.782196
422 14.2968 2.25062 1.54784 -0.167132 -0.0925864 1.34584
230 30.2344 1.9955 0.248103 -2.45283 0.135536 -0.523496
439 29.0928 3.03055 0.734968 -0.939233 0.491214 0.572965
68 2.99987 10.4714 0.735368 -1.06275 -0.458031 -1.02611
185 9.03677 10.0808 0.193411 1.26915 -0.063224 -1.02979
261 2.90172 11.7191 0.57156 -1.41049 1.42148 -0.3683
430 5.70165 16.1603 0.735955 -1.63348 0.753221 -0.819225
391 6.83053 20.7145 0.15975 0.0819616 -0.904833 -1.68472
92 5.44614 21.465 1.35716 1.70583 -0.68209 0.148521
110 7.29831 30.4585 0.667657 -0.281183 1.51693 -0.000420172
405 2.11936 31.5253 36.6767 -0.447674 -0.00114153 -0.779555
381 0.200124 35.9722 0.848697 0.311088 0.852298 0.317548
403 7.27591 9.11873 1.68533 0.163644 0.0147641 -0.0261699
117 19.11 10.0169 1.00807 -1.66164 1.41388 -1.68182
460 25.7511 10.3938 1.49178 -1.68308 0.363872 -0.56105
28 33.1705 10.9281 1.74582 0.853087 1.05025 -0.680101
170 2.64358 14.2012 1.82684 0.122965 -0.88004 -1.01836
338 19.2986 14.0436 1.85043 -1.48931 -1.27194 0.187717
5 12.5288 17.4605 2.48248 0.447829 1.73893 -0.0120202
13 9.10163 17.711 2.10656 0.0905932 1.59879 -0.101701
264 0.266401 19.342 2.14992 -2.29714 0.335533 0.0881421
366 4.23372 19.5216 2.1803 0.453906 0.50473 1.44047
401 28.1791 18.5841 2.42178 1.4478 -1.41863 -0.506809
476 15.0133 21.7531 2.24693 0.00471177 -0.817223 -0.582523
212 12.3337 22.7585 1.32869 0.0315424 -0.0647723 -2.08877
17 19.8472 24.7661 1.75038 0.183382 -2.52577 -0.1719
188 22.2657 24.5786 2.70923 -0.669799 0.609868 1.21024
96 3.06906 26.1113 2.33151 -1.41746 -1.14864 -0.184749
298 11.5674 26.679 2.18448 -0.806754 -0.464628 -0.807351
463 30.1115 25.4046 2.37077 -0.90593 -1.67351 -0.776777
383 36.0806 29.357 2.30337 -0.346102 -0.118795 -0.663282
461 5.65048 35.3156 2.31735 -1.63832 0.237517 0.404922
284 14.4322 34.5303 1.80537 -1.82428 1.51357 0.184303
485 30.4112 35.7156 2.66652 -0.276489 2.19219 -0.838878
478 25.32 0.388363 1.58295 -1.87747 2.05188 -0.507422
76 21.3421 22.5044 3.18915 -1.98423 0.700785 -1.37303
412 15.0787 29.4857 3.81307 -0.371743 0.526292 0.852781
87 16.239 29.0683 3.35733 -0.22219 1.10116 -0.299534
315 23.8937 30.2714 3.99144 0.509289 0.480262 -0.878224
189 33.7473 31.763 3.52041 0.540285 -1.42353 -0.580373
91 35.3385 31.9993 3.21202 0.00965334 -0.0106171 -0.364607
95 8.73939 34.9802 3.93136 0.623978 0.830834 2.09213
394 25.9051 35.3855 2.80783 -0.206241 1.76263 -0.17863
300 30.8689 34.936 3.31214 0.943343 0.838084 -1.65816
386 5.21245 36.5298 3.86692 -0.290039 0.398742 -0.674161
330 8.63606 0.382402 5.09482 1.01963 0.188297 -0.828056
38 10.6886 1.07645 4.23472 -0.364085 0.68818 -0.554725
27 20.787 2.76818 5.23754 -0.686811 1.3727 1.3866
116 7.03018 2.84641 4.49894 -0.314408 -0.793846 0.250548
273 8.52557 4.33462 4.47844 -0.92321 -0.342672 0.250599
138 15.9668 6.3542 4.3672 1.2442 -0.936308 -0.55139
454 26.2986 9.30147 5.56326 1.22484 -1.58923 0.345018
246 36.0132 11.0222 4.80201 0.643415 0.191212 1.22587
360 14.963 11.8846 4.93983 -0.216886 -0.344955 1.37718
253 12.6142 13.2896 4.97189 -0.733364 1.29882 -1.1192
445 31.9096 14.8999 5.49447 0.710662 0.747131 1.00071
152 1.96095 18.4982 4.88795 0.561284 0.115277 1.54187
56 10.1211 21.6841 4.43118 -0.553904 -1.39948 -0.18329
481 10.4083 22.6054 5.03798 -0.479081 0.0882347 0.396669
417 1.56162 24.8754 4.48859 -1.46403 0.434963 -1.19574
165 24.2183 30.6425 4.96798 -0.639781 -0.0431059 0.472496
413 21.435 2.54444 6.4886 0.849049 -1.02954 0.446585
311 6.23264 6.69089 6.9868 -1.34072 1.08952 0.180579
314 6.11589 11.2478 5.86931 -0.00532983 0.222525 -0.901267
270 8.77278 11.2482 6.85352 0.279294 0.0395821 -0.209664
265 31.2411 14.7497 6.52505 1.24824 0.420429 0.859537
453 2.53328 16.4913 6.0939 0.961208 -1.14891 -0.210127
238 15.6276 17.1268 5.63515 -0.135075 1.96876 -0.999254
237 23.6812 20.6224 6.80723 0.514573 -1.20467 0.556011
6 27.0691 23.8936 6.22838 1.54818 0.380759 1.69254
432 21.998 29.3939 6.7446 -0.138312 0.145542 0.69811
60 24.83 29.4821 5.77551 -0.490237 0.0700198 -0.625794
310 24.7768 28.9294 6.7955 -0.908297 -0.942674 -0.374253
429 29.9117 32.6886 6.44847 -1.33828 1.23359 0.15131
159 3.83567 34.0221 7.26674 -1.27479 2.06003 0.721106
488 11.361 36.4794 6.99955 0.215599 -0.454276 -0.218395
140 5.71302 0.11667 7.20285 -1.02505 -0.541046 -0.502233
241 8.38228 1.51592 7.47786 -1.33163 0.306317 0.820976
123 32.2156 2.04565 7.34277 2.31366 0.284567 -0.119462
107 26.8299 2.94797 7.68629 0.273652 -0.0501424 0.313965
41 10.3012 5.27019 7.93915 -0.372042 1.20962 1.46774
292 12.8264 6.17087 7.71863 -1.44341 1.21772 -0.260382
83 24.2438 8.8948 7.63564 0.798813 1.76277 -0.545139
442 35.2408 8.63543 7.01762 1.69308 0.190965 -0.134022
271 7.61259 10.5548 8.04751 0.0868013 -1.28924 1.05181
313 28.4027 12.2066 6.82399 -1.67542 -1.11314 -1.34766
356 20.7099 13.0457 7.71061 -1.44968 0.461983 0.348505
425 6.61036 14.4435 7.65598 0.0541274 -0.0397855 -0.275831
376 0.736888 16.8302 7.37836 0.436927 1.32332 0.185644
201 7.28159 17.2142 8.92017 0.436345 -0.152256 1.77325
142 16.7793 20.1455 8.0867 1.13629 1.57195 0.0870383
285 20.8243 20.7238 7.44034 -0.782135 -0.594365 -1.49537
339 5.86839 22.5601 8.56703 1.22691 0.0966831 0.529372
475 22.3697 22.3855 7.97696 -0.435235 0.226825 0.362288
244 24.9353 21.6755 8.03275 0.545176 0.245426 0.231228
43 13.8948 24.1916 8.27625 0.985793 0.856144 1.05633
128 15.7974 25.0693 8.13575 0.516166 0.906382 -0.369264
312 3.80156 26.699 8.21495 -0.635441 -2.20949 -0.728511
204 9.84594 28.717 7.45683 1.56473 1.50657 0.680043
388 23.4759 28.0363 8.24457 1.12153 -0.817625 -0.177215
255 30.313 32.4846 7.49033 -0.0623769 0.809357 -0.0283024
111 31.4825 32.4388 7.52263 -0.357756 1.3757 0.409803
15 28.6537 33.8542 7.94865 0.485378 -0.622096 -1.91556
254 9.77523 0.0403319 9.38622 0.448251 -0.768205 -0.846661
99 13.488 1.07533 9.40151 -0.977476 0.233893 0.778923
208 10.1488 2.28793 9.75079 -0.901367 -0.275526 1.21822
75 20.8357 2.26562 8.88983 -1.70838 0.375466 0.0562092
90 34.7153 8.16516 8.27453 0.425421 -0.672868 -1.22414
178 2.01407 9.00735 9.94473 -1.00418 -0.836009 0.373517
148 13.0489 8.57786 9.02478 -0.148122 0.216136 -0.012741
94 29.0793 10.2043 9.48814 0.109367 1.22962 0.956886
216 4.77271 10.5089 9.31003 0.299876 1.1642 0.163715
266 22.2105 9.98114 9.53386 0.937585 0.0133902 0.900667
305 5.98365 15.0175 8.52326 -1.13764 -0.204193 -0.665332
279 31.245 14.9146 9.93795 -0.535302 -1.86958 0.330972
163 4.34438 16.6895 9.56014 -1.48653 1.14656 0.0904544
16 20.9394 15.8296 9.37189 -0.126973 0.161749 -0.0599338
498 24.7951 18.5201 9.94237 1.52716 0.427836 1.66138
224 33.0998 17.9833 9.61227 -0.809246 -0.300011 1.37616
444 36.0368 18.5708 9.4238 -1.29158 0.774272 2.06977
197 32.4566 20.0268 9.95588 0.759619 -1.92705 0.449503
190 30.2894 23.538 8.50858 -1.07079 -0.298972 -0.588417
98 17.8728 25.769 9.38729 1.3247 0.803582 0.872825
175 33.9127 25.9984 10.056 0.156888 -0.0562195 0.786008
406 5.15599 27.8481 9.21523 0.10342 0.182258 -0.450102
86 32.7691 27.8723 9.99703 1.30671 0.724602 0.712832
55 19.9772 29.142 9.19844 -1.58739 -0.613927 1.42925
8 22.3602 28.5338 8.45013 0.845298 -2.3532 -2.37412
327 27.8479 28.7631 8.32749 0.335604 -0.776248 -0.835844
319 16.3774 34.8601 9.46191 1.17344 -0.29664 -1.29512
281 7.76696 0.988623 10.3814 0.506208 -0.98503 -0.627504
18 32.1715 0.118017 11.3811 1.45403 0.165576 0.450534
93 6.68449 1.41899 10.0592 -1.17391 -1.071 0.298122
431 15.2793 1.59571 11.2775 1.15482 -1.54813 0.51565
395 20.7109 2.06909 10.3147 -1.04881 1.76308 -1.32678
295 4.33762 10.1015 10.2633 -0.71778 -1.54035 0.55057
484 34.2589 9.42365 11.3902 -1.25797 -0.068761 -0.373524
171 31.0812 14.3958 10.9132 -1.03276 0.726433 -1.13421
280 1.52195 15.983 10.0834 -0.393984 -0.128945 -0.886617
469 6.67323 16.7887 10.4967 1.3744 -0.679427 -0.0731246
70 3.3631 23.7932 11.1001 0.262926 0.148981 -0.798244
365 14.2143 24.4351 10.4924 -0.189161 0.000318292 1.439
497 0.869969 26.2719 11.3793 -0.562882 1.9784 1.29151
402 30.4794 35.8194 10.2075 2.16692 0.391495 0.950773
186 12.8034 0.623178 12.185 -1.54561 0.288886 1.2002
322 18.609 1.45331 11.6812 -1.70712 0.554357 -0.753511
161 32.5274 0.0993201 13.3797 1.07673 -0.842732 2.908
316 32.9997 0.371751 12.1355 -0.117838 -0.175092 0.115871
20 7.5406 1.67491 11.3292 -1.02712 -0.0161811 -2.26899
424 6.88996 2.50151 11.8599 -1.31324 0.927701 -0.882467
468 10.3523 2.33801 11.3664 1.1022 -0.744306 -0.0369282
164 7.0615 3.73332 11.4256 2.32069 0.141651 -0.976628
353 13.5036 3.63028 12.4661 0.277292 0.178931 0.611649
450 32.8432 5.38522 11.2024 0.538366 2.36818 -0.63846
45 34.3748 8.51388 11.808 0.192436 -2.04223 -0.00227306
114 19.7853 14.1005 11.8492 -1.357 -0.0935697 -0.489316
496 32.4376 15.29 12.4138 0.221332 -0.440785 -1.12511
61 34.0088 14.8489 11.9932 0.739596 1.00343 1.3119
59 2.77607 17.2447 11.4926 1.02075 0.760808 0.38877
25 31.6632 18.114 12.3417 2.07913 0.264689 -0.878179
268 2.017 18.7312 12.3327 1.50343 -0.590276 -0.390272
109 22.2267 18.7122 12.5558 0.818244 -0.379124 -0.0833596
411 18.0325 21.4656 11.5057 0.932245 1.00403 -1.052
331 33.2025 21.3676 12.1512 -1.13217 0.775747 1.57308
180 2.70113 23.1469 11.5292 -1.14057 -0.23455 -1.0935
65 17.8618 24.3626 12.5959 -0.535892 -0.816975 -0.0673076
227 19.1297 24.2584 13.0809 -1.03028 -0.601437 1.39052
26 26.0879 26.2107 11.6487 -1.4253 0.444621 0.607146
299 34.1792 27.4947 12.9872 -0.237982 1.51348 1.24323
357 11.3578 7.65065 13.7881 -1.53856 0.548275 0.564176
104 32.3645 7.43671 13.828 0.758377 0.146758 0.836021
423 1.43529 10.2741 13.1464 -0.270962 -0.0767167 0.59322
193 3.23145 10.7696 13.0629 -1.23491 -0.774547 -0.0844124
358 32.444 9.7655 13.8869 -0.588064 -2.15658 0.517187
211 2.9092 11.3114 13.844 -1.01554 -0.0782004 0.011216
256 22.7184 12.3315 12.8418 0.681677 -0.750492 -0.0995142
21 26.961 13.2742 13.9481 -0.230244 -0.572047 0.39403
377 0.111944 14.2765 12.8898 0.616526 2.1161 0.00722657
379 3.63778 18.0598 13.2944 -1.12369 -0.406539 0.523137
459 3.03581 19.062 12.5456 1.77549 0.19882 -1.3671
206 4.49645 20.3799 12.7241 -1.27871 1.89096 -0.780464
267 21.8715 23.206 13.9388 0.378232 -2.20149 0.0758062
289 35.2389 23.3923 13.8026 0.389539 -0.527351 1.29459
149 35.0871 24.332 13.3591 -0.448421 -0.775599 -0.672488
132 1.84945 28.0339 13.7698 -1.26529 -0.485576 -1.30217
462 12.183 30.9314 13.5484 0.235422 -1.49418 2.39421
350 2.00071 32.6997 14.1782 -0.884075 -0.186712 1.14753
218 13.0542 33.3723 13.4669 -0.509778 -0.969924 1.74889
426 2.9959 1.59313 14.4307 0.0931072 0.272369 -0.980425
363 26.999 1.85841 15.7186 1.40552 -1.51926 1.18951
78 36.2074 6.94221 15.9443 -1.52188 -0.0889286 1.60575
290 8.30915 9.54837 15.0284 1.40978 -0.332796 0.38795
384 9.37885 10.0936 15.0448 -1.37479 1.61828 -0.391594
308 16.3859 8.92705 15.0546 0.868165 -1.12807 -0.106987
77 0.401274 12.5257 15.1954 0.241305 -0.938059 -0.802008
145 27.818 15.5977 15.1863 0.108491 -1.41009 1.2573
482 17.3955 20.2536 15.2122 0.355445 -0.432803 0.716316
100 14.601 23.6194 14.7056 0.224228 -0.352968 -1.50361
234 19.9275 23.945 15.0534 0.203656 -0.0199712 0.568606
248 27.3625 22.6506 15.0073 -0.0323025 -0.355383 -1.73064
490 34.2225 26.2419 15.0079 -1.15936 -0.238533 -0.299248
239 5.33995 27.6999 14.9292 0.906708 0.605892 -1.33923
207 23.9078 27.7864 14.7702 0.532629 -0.762839 0.227512
4 4.9458 34.7864 14.3649 0.0850831 0.90634 -0.694681
147 3.01166 35.6632 14.7421 0.818733 -0.582284 0.858083
137 31.395 36.6678 15.8222 -0.0880142 0.214489 1.77112
393 24.5683 0.893981 16.4964 0.407314 -0.742331 -0.799423
325 33.5579 5.08699 16.3807 1.32361 0.846889 0.00238728
492 36.2978 7.8544 15.2922 -0.623703 -1.04357 -2.30763
202 24.6942 13.5948 16.1229 1.84507 -0.51502 -0.206502
367 10.6752 14.6624 16.0193 -0.0320952 0.561314 -2.41131
85 4.75925 16.0795 15.3859 0.221007 1.39343 -1.55811
304 27.3595 18.1274 16.6176 0.282418 0.854918 -0.329786
397 24.1214 21.1727 16.7373 0.0748634 -1.24218 1.32538
433 0.13447 22.9895 16.1303 0.444347 0.256745 1.42716
474 31.2182 23.59 15.9534 -0.896334 -0.270902 -0.927791
396 7.347 29.0527 15.7632 -0.758505 -1.77691 -1.44489
414 28.3291 33.0245 15.5907 -1.0162 -0.690186 -0.783444
215 31.5819 33.6997 16.931 1.27846 -1.69661 -0.0650952
194 34.3373 34.3576 17.0656 1.14376 0.892867 0.712522
373 10.9744 4.06785 18.4725 -0.625379 1.09537 0.792467
293 8.34403 5.05179 17.474 -0.543973 0.103161 -1.66744
154 12.8912 5.53248 17.0725 -1.32459 0.650714 -0.266267
172 34.0649 5.67666 17.2498 0.357727 1.10555 0.0133424
455 8.8396 7.45505 17.6075 0.114136 1.62363 0.51931
217 20.4297 6.37937 18.3821 0.0397591 -1.30656 1.2677
115 12.1196 8.24199 17.4002 -0.480777 -1.38454 0.586412
477 29.9088 14.2198 17.5554 -0.585826 1.82084 -0.478122
196 12.1088 16.7432 18.3279 1.1356 1.54214 0.624189
146 35.5061 17.6231 17.8983 -1.30735 0.568868 -0.590665
166 12.6745 19.0161 17.8656 0.529655 0.391719 1.29727
451 24.0185 19.9139 17.1563 -0.689461 0.823534 -1.12225
378 23.7582 21.8984 17.4482 -0.79284 -1.17959 -1.06284
162 32.6753 22.9246 16.8655 -0.20179 -0.335957 -1.2272
398 29.4409 25.1277 18.4712 0.144159 0.900097 0.851511
374 0.550623 25.9047 18.3445 -1.06049 0.402844 1.34697
82 10.2482 33.9812 18.2508 -0.930921 1.09302 -0.0848453
127 4.55981 2.0996 19.252 0.267183 0.176437 -0.292414
362 16.9807 1.16681 18.9632 1.03254 -1.67663 -1.3138
324 35.3163 2.31302 19.9116 0.474919 0.900257 0.316175
341 31.3674 3.93501 18.694 -0.673879 1.05388 0.476776
347 35.274 4.34066 19.3575 -1.0862 1.60731 -0.934109
169 0.103779 5.10193 18.9808 -0.306514 -1.19579 0.848367
323 26.457 5.01042 19.2475 0.883128 -1.163 0.37066
252 8.39778 6.35787 19.8605 -0.910728 1.96734 0.571784
491 15.6647 6.13589 19.4309 -1.0398 0.68001 2.18
191 16.7509 6.04907 19.0537 -0.210808 -0.769231 -1.03942
122 18.9027 5.79518 19.3952 0.507798 -0.554523 0.503932
58 17.447 12.9091 19.2186 -1.35844 0.129609 0.854563
71 13.871 16.8239 18.3074 0.557403 -0.0848835 -0.895828
48 12.1193 23.356 18.4743 -0.0519044 -1.28786 0.0480966
301 33.921 24.3531 19.2636 -0.563609 -1.86853 -0.00643621
221 2.51625 26.3669 19.019 0.46644 -0.0343087 0.605438
69 29.5672 27.0508 19.5757 0.957306 0.210285 -0.76011
32 5.7427 29.731 18.4005 -0.615868 -0.0260667 -0.453077
472 16.8322 29.767 19.14 0.908785 0.272914 -0.911806
118 11.5581 30.9531 18.5711 0.562707 0.934385 0.270632
326 24.972 30.0076 20.0237 -0.404564 1.50265 -0.537734
103 4.22055 32.2872 19.1264 1.35162 -0.805765 0.259161
257 25.1325 31.417 19.7322 -0.638067 -0.0638539 0.449525
63 3.13806 32.3315 19.738 0.3045 -1.25419 0.144194
410 23.9157 34.2516 18.2646 1.16949 -0.339504 -0.612081
297 35.3619 33.6322 19.147 -1.40859 -1.22835 -1.19623
33 4.24578 35.9949 18.9617 -1.17033 -0.411226 1.04178
34 1.78615 5.6046 20.3753 0.0550772 0.917608 0.444736
31 22.6266 6.74394 20.1518 1.1076 1.35759 -1.90397
176 30.2328 5.85363 19.969 -0.2097 -0.244227 -1.26998
144 9.40336 9.0927 20.5841 -0.816193 1.30865 0.760303
192 8.53842 9.76196 20.1975 -1.32081 0.145411 -0.401023
287 14.39 10.3661 20.4979 1.45947 0.931081 -0.373528
46 3.04089 12.096 21.1061 0.254021 0.0791389 1.66525
134 19.8252 13.029 20.2622 -0.850365 1.45045 0.645998
133 21.4511 17.8807 19.9459 -1.36094 -1.12957 0.339946
369 20.8612 18.8845 20.5767 -0.349324 -0.630478 -2.14623
210 30.0585 19.3398 20.4403 -0.45923 -0.598284 0.595811
198 20.2596 23.1292 20.4766 -2.35267 0.132633 -0.45663
328 20.2131 26.289 20.3068 -0.437101 0.0858446 -1.85571
24 31.856 27.7071 20.8336 -0.708887 -0.979701 0.430801
400 19.9621 29.9508 20.7 1.46749 -0.201512 0.222094
219 36.8344 33.5863 19.7635 2.13554 -0.448422 -0.205105
44 26.1312 35.5308 19.8403 0.291268 2.22472 -0.839634
14 8.23773 1.40295 21.6116 -0.684372 -0.617304 1.26957
473 14.62 2.83424 21.8168 0.425016 0.896041 -0.957296
346 0.861595 3.14217 22.057 1.68884 0.452337 -0.760401
187 0.53086 4.32839 22.2493 0.79469 0.996162 0.551546
160 3.67348 5.51298 22.5015 -0.374762 -0.151495 0.548381
126 7.30165 8.30659 21.751 0.168343 -1.63259 1.29061
168 13.6339 9.88597 21.9549 -1.0277 -1.86189 -1.34107
283 32.4623 12.7063 22.0991 -1.1445 0.276635 0.40225
447 11.8107 13.664 22.3511 0.770676 -1.56605 -0.294781
229 13.2061 14.3161 22.3787 -0.224173 0.611053 -0.497906
131 6.64841 17.1047 22.0978 -0.511674 -0.389163 -1.57759
495 3.27194 19.4109 22.3985 -0.0796157 -0.997787 -0.901666
340 5.40271 20.6022 21.1285 1.23166 2.30268 -1.1852
49 14.7996 20.9685 22.1671 -0.296149 -2.30482 -1.053
231 32.8789 23.4201 21.7016 1.10458 -0.101104 -0.472554
335 33.7442 23.6951 22.4161 -1.74294 0.351923 0.889363
223 33.8591 24.1881 21.114 1.10817 -0.0607637 -1.48807
167 16.5915 26.4962 21.8686 1.89425 0.223181 -0.995808
372 25.0584 29.6016 20.9422 -0.883951 -1.06949 0.237125
329 26.5386 31.3604 22.1175 1.41031 -1.2148 0.00808373
174 29.9055 34.6118 21.2374 1.17629 0.240586 -1.2559
79 23.9239 0.765116 22.5481 0.115151 -0.262946 -1.44689
407 0.0219807 5.07499 23.7934 -0.4113 -0.581071 0.749035
440 1.05737 4.15405 23.2489 0.0193176 -0.610083 0.645613
441 26.222 7.85644 23.1594 -0.357325 0.133609 0.963636
296 27.0017 7.7652 23.9759 1.89153 -0.365707 0.36687
222 31.3661 7.97209 23.5237 -2.54611 0.193488 0.53282
158 2.60467 8.79726 23.3027 1.4591 -0.327871 -1.06386
225 31.7797 9.8266 23.9923 -1.49547 0.320196 -0.31905
153 23.9632 10.6167 22.8946 0.136082 0.547437 -1.14797
262 17.5011 12.2582 23.3225 0.696977 -1.12868 -1.42958
29 35.2607 14.1703 22.7063 1.00528 1.62701 -0.321762
57 16.9699 15.564 23.7089 0.302936 2.10406 1.36158
258 26.8351 17.0795 23.3287 0.131498 -0.299973 -1.06823
493 1.51722 18.986 23.436 1.22405 -0.594241 0.406704
351 5.94812 20.1552 24.1669 -0.584833 1.35993 0.672973
390 13.8893 22.484 23.6382 0.828261 -1.46557 -1.47171
240 25.4179 23.546 23.0623 0.458665 -1.09371 -1.13703
389 7.89123 25.1235 22.9626 -0.656975 0.340748 -0.00948499
370 22.6961 26.3187 23.7062 -0.545466 -0.752294 0.166797
359 22.0319 27.7359 24.1413 1.322 -1.62277 0.697936
318 35.4221 28.7511 22.8097 0.216388 -0.376121 -0.553555
124 4.47868 31.4814 23.4131 -0.060365 -2.04341 0.847477
263 11.1197 33.4511 23.1653 1.51029 -0.556188 1.34819
419 30.849 0.851174 24.6061 -0.592232 -0.636894 0.179634
342 31.6596 3.10551 24.7351 -0.135282 -2.13148 0.198461
277 20.4364 6.93188 24.4538 0.828683 -0.28459 -0.140396
203 35.1122 6.05865 23.8349 0.0927346 -0.812832 -1.24316
112 25.1418 7.46417 24.5187 -1.18251 0.120515 0.242572
500 25.1653 9.04038 24.4349 0.360348 -0.0557105 -1.82259
101 29.9555 19.1842 24.4529 1.74504 0.250617 -0.407182
80 27.4382 20.2369 24.7028 -1.78701 -0.516246 -0.0902619
486 29.2694 21.8476 24.9174 0.553017 1.16234 -1.78396
89 36.9028 24.0075 25.4522 1.54791 0.375371 0.59966
421 29.2574 26.8099 25.6324 0.572455 1.01654 0.515506
420 5.61419 36.0457 24.9881 -1.63405 0.431682 -0.00978461
102 13.1757 36.7782 24.8653 -0.419759 0.407312 -0.592687
343 12.978 2.38268 26.9685 0.204085 0.739495 1.14742
364 12.9355 8.35239 25.368 0.203123 1.15959 -0.59546
130 28.3972 8.0711 25.932 0.68142 1.28281 -0.130905
309 10.1951 14.4908 26.3632 -0.408306 -0.0960698 0.355672
183 16.7331 14.2678 26.764 -1.16906 -0.764927 0.188625
119 21.8449 16.6595 27.0829 1.51532 -0.207243 1.66442
156 5.92868 20.5758 26.3616 -0.568256 1.58981 0.945824
125 1.04724 22.02 26.2158 0.97722 -0.45938 1.02991
435 4.40569 21.4293 26.9317 1.48891 -0.656334 1.18107
282 22.6465 22.7779 25.7219 0.0385323 0.310609 -0.132184
155 14.1957 24.1921 26.9385 0.256794 -1.80258 0.996687
81 29.6908 25.7001 25.659 1.92475 1.1323 -0.809895
320 20.6114 26.1343 26.7196 -0.829837 0.413474 0.0393626
3 24.1074 26.8938 26.4445 -1.49019 1.58394 1.85879
2 31.7707 28.7164 26.089 -0.287031 -0.869152 -1.58292
184 12.9136 31.9943 26.507 1.5357 -1.16906 -0.842208
275 23.2209 32.229 26.0026 -1.2614 -1.76817 1.02374
465 9.10567 34.5541 26.1372 -0.00131526 -1.5266 -1.17897
276 30.6648 36.0244 26.7448 1.48079 0.89352 1.11224
494 13.4104 2.75429 28.2272 0.699005 0.641357 -0.25415
235 1.26281 3.88982 27.7002 -0.53624 0.998925 -1.1795
182 18.1144 4.01577 27.5797 2.57788 0.959827 -0.315631
64 28.5369 5.02304 27.6062 -0.0904682 0.768143 -1.02993
456 19.864 15.627 28.3865 -0.296748 -0.101065 0.340963
136 19.5101 17.5145 28.7251 0.281297 -0.861958 1.41868
195 12.5936 19.6547 27.6642 0.4171 -0.457514 1.46963
151 14.9847 23.0111 28.4143 0.669045 -0.855774 0.446833
375 12.655 24.5713 27.3014 -1.3837 -0.422234 0.947127
345 19.529 25.317 27.5364 -1.94218 0.161986 -0.736026
108 20.4146 26.4423 27.7416 0.750866 1.22347 2.30007
232 2.30617 27.4847 27.7572 0.611319 0.0171515 1.53274
74 35.3127 27.5903 27.9155 0.774409 1.46484 0.0381085
236 7.81135 31.3955 27.0507 -0.195765 -0.584204 -2.10217
355 12.7311 32.4064 28.1909 0.0422572 0.317382 1.06922
321 27.2102 34.6249 27.7882 0.511143 -0.499416 0.84285
243 30.4056 36.0785 27.8565 -0.799245 0.238286 0.233693
336 0.391135 0.81563 29.2808 -0.502129 -1.84264 0.847106
141 2.65337 3.57024 29.4646 0.0639254 -1.88377 -1.04844
479 33.4728 3.2166 29.5273 0.480414 -0.28075 -0.458511
368 8.99985 10.6344 28.2599 0.612654 -0.149232 -0.567344
269 9.0761 9.96649 29.0494 1.29184 -0.630511 -1.49598
399 28.3492 11.3742 29.1743 0.738309 1.22044 1.95975
52 12.0742 13.8301 29.0318 -0.50237 -0.816908 -1.54874
37 34.6742 15.8232 29.2851 -0.470005 -2.62349 0.737212
437 35.6412 17.3059 28.9284 1.41896 0.223851 1.44328
251 15.4762 23.4148 29.3889 0.955063 -1.71895 1.12898
408 16.5441 26.6921 28.9001 0.546097 1.15663 -0.0236163
382 36.3716 27.7541 28.4008 -0.0916775 1.24597 -0.308984
40 26.6633 30.0975 28.9582 1.50343 0.818657 0.350491
306 19.4842 31.932 29.7424 -0.33298 0.0173793 0.550325
250 24.6875 33.7159 29.434 -0.819046 1.49033 0.272025
499 32.3374 3.1796 31.2444 1.20043 1.97958 1.41837
489 2.90778 6.57427 30.7083 -2.19756 1.3363 -0.0719246
416 16.6348 6.59643 30.6213 0.885219 0.822406 1.73451
334 21.812 9.43829 29.8017 0.41709 0.368473 0.0332989
129 11.9345 10.9865 30.8987 -0.0434248 0.0867021 -0.920063
317 22.708 10.392 30.6469 0.313583 0.747699 -0.438797
42 28.2834 10.9468 30.4201 -1.50787 0.245723 -1.88432
332 29.7577 10.6954 30.3021 -0.252565 1.0077 -1.76437
247 3.1444 12.3599 31.0777 0.497883 -0.0257234 1.09699
51 10.2494 11.0961 31.3762 1.30146 -1.3908 1.83092
371 12.797 11.862 30.485 -0.0313282 -0.637362 -0.351829
88 5.52214 17.8444 29.9569 -0.118252 1.46013 0.155547
470 20.6748 17.8519 30.5899 0.416057 -1.60905 0.981257
47 35.3826 21.7853 31.5352 0.807909 0.351938 1.7066
199 27.0407 26.1471 30.6451 -0.411507 -1.73467 -0.00850869
467 28.4498 26.1429 31.1638 0.173875 0.389383 1.22233
471 34.8244 26.8965 29.9542 -0.158089 0.439883 -0.309424
337 12.0778 30.4386 30.0858 -1.62997 1.04943 0.711529
448 27.7629 30.8289 30.9555 -0.658493 -1.34359 0.757116
458 36.3335 31.5948 29.8298 -1.61478 -0.770423 -0.494927
177 9.3973 33.2136 30.4398 1.31773 -1.21339 0.480721
348 4.87789 36.7166 31.1087 0.613196 -0.176137 0.411994
404 27.5046 1.19173 31.6735 -0.267074 -2.14406 -0.934036
480 23.2897 3.70554 32.4882 0.522158 -2.37418 1.14082
291 9.46142 9.54538 31.7852 -0.934771 0.483628 -2.00612
443 22.2067 15.2989 31.5932 0.951755 -0.12414 0.572906
150 23.9857 15.2972 31.2069 -1.66114 1.05583 0.0659268
333 30.2679 16.9245 32.9192 -0.73795 1.33474 1.60209
143 30.31 18.7915 31.3448 0.227941 1.62006 -0.943392
344 31.6301 19.8059 32.5452 1.129 0.558969 0.308312
9 35.4906 22.7497 30.9739 -0.535252 0.806924 -1.36932
288 10.5275 28.6786 32.3384 1.48534 0.518689 -0.654579
11 22.5318 30.1688 31.8134 -1.15711 1.76766 0.83969
409 5.40247 30.86 31.5236 -0.415933 -0.336803 -0.15104
62 12.93 30.9146 32.7371 -1.27937 -0.889214 1.19776
385 17.8603 30.2941 31.9795 0.0636247 -0.235528 -1.13794
303 26.2135 32.3322 31.7926 -0.154128 -1.16408 -0.330966
84 36.1881 33.0432 31.4726 -0.640308 1.38077 -0.149382
226 32.9785 34.7261 31.5591 0.551717 1.28269 0.943979
487 2.50374 0.602861 34.0184 1.36923 0.0597132 0.239657
464 8.82394 1.22985 33.3458 1.08828 0.536507 -0.849268
380 0.699888 2.33752 32.9396 0.161269 -1.5162 0.182917
259 13.5982 2.22513 33.1551 -2.07625 1.11568 -1.59234
139 13.8398 3.22069 33.3904 -0.943014 -1.38378 -0.427291
307 27.1001 5.19508 33.3082 0.910905 -0.335941 0.529365
260 21.4784 9.00394 33.8486 -2.07169 -0.735119 0.461022
233 24.1217 8.7427 33.4149 -0.602804 -0.952183 -0.199921
121 0.748451 10.8802 33.3407 0.439574 2.46024 0.526879
22 14.1776 11.0119 33.9682 1.22928 1.90149 0.960314
66 18.3306 9.87415 33.2041 2.1426 -0.737082 -0.280094
249 36.6012 10.9025 32.9092 -0.861074 -0.600177 0.984426
97 8.87861 13.5502 33.0118 0.453554 -0.221551 0.804033
449 23.3983 13.5707 34.0922 -0.0390639 -1.65728 2.04381
200 6.51863 20.5726 33.3278 0.453735 -0.569327 1.34255
106 11.525 23.3258 32.4148 1.46836 0.710879 -1.77201
436 13.521 23.0214 34.4129 0.982514 0.947081 1.89593
23 23.8055 22.9644 32.9825 1.79717 0.446319 0.755385
220 10.4454 24.7939 33.2721 0.297736 -1.24648 -1.31112
354 35.514 34.1232 32.7842 -0.684677 1.24376 -1.64356
30 9.84202 34.8482 32.7196 -0.833553 -0.715458 -1.35176
245 13.7757 34.6989 32.4151 -0.46485 0.20411 -2.00013
274 6.32203 35.4327 33.916 -1.82191 -1.67949 0.105522
53 12.8832 4.41795 34.6624 -0.220984 1.77768 0.576261
179 9.66114 6.26262 33.9266 -0.0104292 -0.303926 -0.880851
457 1.12615 8.93397 35.3593 0.611854 2.76657 1.78557
352 31.4039 7.70828 35.7274 0.0778905 1.78915 1.62094
157 34.9361 9.28664 34.4019 -0.218086 0.471486 -1.82876
446 3.822 12.9579 35.533 0.0604719 -1.36771 -0.105096
113 15.2243 18.561 34.7846 0.203951 -0.851986 -0.0650994
242 33.0134 18.9779 34.0996 1.49361 0.00538851 0.124535
228 23.5644 20.6057 35.146 -1.01637 0.999173 0.227936
35 5.16832 22.3066 34.8324 1.19803 1.67466 0.300883
434 13.1219 21.6637 34.3656 1.17227 -0.317281 0.544874
205 29.8342 22.5843 35.4185 2.15262 -0.501908 1.32396
209 9.88927 24.4629 34.2301 0.0163532 0.200748 -1.18836
361 29.8078 28.4416 35.1211 0.594637 -0.525329 0.0692501
428 16.2237 30.4816 34.4657 -1.95464 -0.754856 1.44018
50 30.1885 30.0374 35.5819 -0.065088 -0.507882 1.20036
173 36.1153 32.7244 34.1041 0.728708 -1.90456 -0.197551
286 10.7355 35.0533 34.9895 0.739287 0.835099 -0.0677023
418 36.2545 35.5427 35.1448 0.646553 -0.41004 -0.82272
452 12.8974 3.06568 36.0151 0.928959 1.4031 0.273847
466 6.53787 2.94988 36.719 -0.531738 -1.2195 1.12507
36 14.2754 4.71048 35.8088 1.93909 -1.12911 -0.230556
120 34.8189 7.03909 36.6813 0.303276 -1.82975 0.662906
387 6.51915 8.99464 35.8023 0.990896 0.876571 -2.0644
73 7.05104 10.0908 35.8731 0.560288 1.54085 -1.09947
1 3.24711 13.5905 36.5864 -0.734073 0.955489 2.33166
438 22.532 13.3765 36.1986 0.896824 0.622454 -0.477315
392 9.34674 16.7864 36.3957 -0.0527751 0.98692 -1.18269
7 12.8785 15.5935 35.0619 -0.858499 -0.319337 -1.572
272 1.42117 17.8887 35.1409 -0.924257 0.400123 -1.77318
349 30.882 22.3286 35.9958 -0.44055 -1.73585 0.385206
415 19.4549 25.6642 36.396 -0.430106 0.92347 -0.948204
54 26.0682 25.312 36.7551 1.49171 -0.15313 0.071422
67 27.5644 23.8321 35.3723 0.334459 -1.07749 -1.16528
72 1.30004 27.8439 36.3743 -0.435851 -0.699305 -0.815192
278 30.436 27.5334 35.9441 -0.483343 -0.947273 0.663739
302 30.9564 28.8074 35.9961 -0.627648 -1.00268 0.167682
427 31.9375 28.8963 35.5222 -0.586332 0.0049835 -0.358455
135 34.6327 28.3131 35.9483 1.03304 -1.48041 1.20722
294 19.5976 30.3706 36.8288 -0.925922 -0.32417 1.6032
483 31.8542 30.2951 36.3424 1.20833 -1.68174 -0.311308
39 24.54 32.314 36.5437 -0.211134 -0.974985 1.44696
213 3.47632 35.5409 35.5804 -1.09787 0.59341 -1.36878
105 12.1616 35.8334 36.5094 -0.454507 1.19302 0.39754
19 21.5641 35.9928 36.2512 0.914412 0.882286 0.404201
10 24.3754 36.0836 36.1062 0.299219 -0.750261 1.04422
181 29.6547 35.917 36.4125 -0.287833 -0.951682 -0.289828
ITEM: TIMESTEP
2200
ITEM: NUMBER OF ATOMS
500
ITEM: BOX BOUNDS pp pp pp
0.0000000000000000e+00 3.6840314986403897e+01
0.0000000000000000e+00 3.6840314986403897e+01
0.0000000000000000e+00 3.6840314986403897e+01
ITEM: ATOMS id x y z vx vy vz
12 0.287457 0.00484922 36.5825 -0.936744 -1.3984 -0.264919
214 36.4948 2.32165 0.107883 -0.933393 0.134762 -0.798866
422 14.2132 2.20432 2.22087 -0.167188 -0.0926179 1.34629
230 28.9404 2.15144 0.0423266 -2.70513 0.548663 -0.229846
439 28.6905 3.18804 0.965483 -0.688064 0.0782949 0.279332
68 2.44477 10.3967 0.203287 -1.24605 -0.0304945 -1.16668
185 9.66711 10.0495 36.5163 1.2585 -0.0623756 -1.03636
261 2.22293 12.3086 0.389947 -1.30586 1.12941 -0.360411
430 4.88477 16.537 0.326275 -1.63402 0.753472 -0.819499
391 6.85998 20.2698 36.1718 0.0463784 -0.878638 -1.64
92 6.30872 21.1133 1.41834 1.73654 -0.715667 0.0999435
110 7.1577 31.2171 0.667447 -0.281277 1.51743 -0.000420343
405 1.89549 31.5247 36.2869 -0.447824 -0.0011425 -0.779815
381 0.379083 36.4896 0.91321 0.383631 1.26641 -0.258665
403 7.35774 9.12611 1.67224 0.163699 0.0147685 -0.0261787
117 18.279 10.724 0.16702 -1.6622 1.41435 -1.68238
460 24.9094 10.5758 1.21121 -1.68364 0.363993 -0.561238
28 33.5972 11.4533 1.40571 0.853372 1.0506 -0.680328
170 2.5587 13.7301 1.73103 -0.991848 -1.06259 2.1513
338 18.5538 13.4075 1.94431 -1.48981 -1.27236 0.18778
5 12.7528 18.3301 2.47647 0.447979 1.73951 -0.0120242
13 9.14694 18.5105 2.0557 0.0906233 1.59932 -0.101735
264 35.958 19.5098 2.194 -2.2979 0.335643 0.0881712
366 4.46271 19.7768 2.89923 0.459125 0.511778 1.43734
401 28.9031 17.8747 2.16834 1.44828 -1.41911 -0.506978
476 15.0156 21.3444 1.95562 0.00471324 -0.817496 -0.582717
212 12.3495 22.7261 0.284135 0.0315529 -0.0647946 -2.08947
17 19.9481 23.4889 1.6773 0.281537 -2.67709 -0.0180403
188 21.9276 24.8777 3.31486 -0.679533 0.592794 1.21121
96 2.35968 25.5367 2.23974 -1.42436 -1.15145 -0.177509
298 11.164 26.4467 1.78073 -0.807024 -0.464784 -0.807621
463 29.6584 24.5677 1.98231 -0.906233 -1.67406 -0.777037
383 35.9075 29.2976 1.97167 -0.346218 -0.118835 -0.663504
461 4.82816 35.4621 2.54886 -1.63889 0.393906 0.553054
284 13.5199 35.2872 1.89754 -1.82489 1.51407 0.184365
485 30.3899 36.6355 2.33197 0.227144 1.45777 -0.560035
478 24.3827 1.41061 1.33178 -1.8742 2.04289 -0.50109